39
dft\gs_dft\gs_150_1.out	Energy: -519174.6568856
C          0.26299       -1.13853       -0.28676
C         -0.58252       -0.10325       -0.22772
C         -0.08880        1.32122       -0.30856
O         -0.23372        1.94515       -1.34845
C         -0.18526       -2.57343       -0.35951
C          1.73826       -0.93619       -0.29357
C          2.53167       -1.59241        0.64743
C          3.90355       -1.40498        0.67611
C          4.51053       -0.56731       -0.24787
C          3.73483        0.07568       -1.19957
C          2.36083       -0.10822       -1.22524
C         -2.06105       -0.22924       -0.14322
C         -2.64395       -0.94334        0.90201
C         -4.02139       -1.05139        1.00777
C         -4.83860       -0.44038        0.06968
C         -4.26874        0.28172       -0.96854
C         -2.89182        0.39285       -1.07399
N          0.47728        1.86326        0.79757
C          0.67053        1.16965        2.04944
C          1.06663        3.18119        0.71605
H          0.36846       -3.09134       -1.14497
H          0.02208       -3.10243        0.57468
H         -1.24986       -2.65988       -0.56390
H          2.06858       -2.24509        1.37777
H          4.50032       -1.91475        1.42218
H          5.58324       -0.42223       -0.22940
H          4.19999        0.72329       -1.93213
H          1.76197        0.39661       -1.97204
H         -2.00816       -1.41703        1.64055
H         -4.45592       -1.61036        1.82708
H         -5.91517       -0.52307        0.14939
H         -4.90103        0.76361       -1.70373
H         -2.44494        0.96402       -1.87662
H          1.71957        0.88743        2.18358
H          0.37625        1.82250        2.87451
H          0.06227        0.27101        2.08728
H          2.15003        3.11885        0.85749
H          0.85434        3.60309       -0.26155
H          0.65053        3.82994        1.49079
